 # ZnO with wurtzite structure with box vectors H1=[2-1-10], H2=[-12-10], H3=[0001].
  
         500  atoms
           2  atom types
 
      0.000000000000       0.000000000000  xlo xhi
      0.000000000000       8.125000000000  ylo yhi
      0.000000000000      26.000000000000  zlo zhi
     14.072912811497       0.000000000000       0.000000000000  xy xz yz
 
Masses
 
            1   65.38000000             # Zn
            2   15.99900000             # O
 
Atoms # atomic
 
         1    1        1.876388374866      -0.000000000000       0.000000000000
         2    1        0.938194187433      -1.625000000000       2.600000000000
         3    2        1.876388374866      -0.000000000000       1.950000000000
         4    2        0.938194187433      -1.625000000000       4.550000000000
         5    1        1.876388374866      -3.250000000000       0.000000000000
         6    1        0.938194187433      -4.875000000000       2.600000000000
         7    2        1.876388374866      -3.250000000000       1.950000000000
         8    2        0.938194187433      -4.875000000000       4.550000000000
         9    1        1.876388374866      -6.500000000000       0.000000000000
        10    1        0.938194187433      -8.125000000000       2.600000000000
        11    2        1.876388374866      -6.500000000000       1.950000000000
        12    2        0.938194187433      -8.125000000000       4.550000000000
        13    1        1.876388374866      -9.750000000000       0.000000000000
        14    1        0.938194187433     -11.375000000000       2.600000000000
        15    2        1.876388374866      -9.750000000000       1.950000000000
        16    2        0.938194187433     -11.375000000000       4.550000000000
        17    1        1.876388374866     -13.000000000000       0.000000000000
        18    1        0.938194187433     -14.625000000000       2.600000000000
        19    2        1.876388374866     -13.000000000000       1.950000000000
        20    2        0.938194187433     -14.625000000000       4.550000000000
        21    1        4.690970937166       1.625000000000       0.000000000000
        22    1        3.752776749733      -0.000000000000       2.600000000000
        23    2        4.690970937166       1.625000000000       1.950000000000
        24    2        3.752776749733      -0.000000000000       4.550000000000
        25    1        4.690970937166      -1.625000000000       0.000000000000
        26    1        3.752776749733      -3.250000000000       2.600000000000
        27    2        4.690970937166      -1.625000000000       1.950000000000
        28    2        3.752776749733      -3.250000000000       4.550000000000
        29    1        4.690970937166      -4.875000000000       0.000000000000
        30    1        3.752776749733      -6.500000000000       2.600000000000
        31    2        4.690970937166      -4.875000000000       1.950000000000
        32    2        3.752776749733      -6.500000000000       4.550000000000
        33    1        4.690970937166      -8.125000000000       0.000000000000
        34    1        3.752776749733      -9.750000000000       2.600000000000
        35    2        4.690970937166      -8.125000000000       1.950000000000
        36    2        3.752776749733      -9.750000000000       4.550000000000
        37    1        4.690970937166     -11.375000000000       0.000000000000
        38    1        3.752776749733     -13.000000000000       2.600000000000
        39    2        4.690970937166     -11.375000000000       1.950000000000
        40    2        3.752776749733     -13.000000000000       4.550000000000
        41    1        7.505553499465       3.250000000000       0.000000000000
        42    1        6.567359312032       1.625000000000       2.600000000000
        43    2        7.505553499465       3.250000000000       1.950000000000
        44    2        6.567359312032       1.625000000000       4.550000000000
        45    1        7.505553499465      -0.000000000000       0.000000000000
        46    1        6.567359312032      -1.625000000000       2.600000000000
        47    2        7.505553499465      -0.000000000000       1.950000000000
        48    2        6.567359312032      -1.625000000000       4.550000000000
        49    1        7.505553499465      -3.250000000000       0.000000000000
        50    1        6.567359312032      -4.875000000000       2.600000000000
        51    2        7.505553499465      -3.250000000000       1.950000000000
        52    2        6.567359312032      -4.875000000000       4.550000000000
        53    1        7.505553499465      -6.500000000000       0.000000000000
        54    1        6.567359312032      -8.125000000000       2.600000000000
        55    2        7.505553499465      -6.500000000000       1.950000000000
        56    2        6.567359312032      -8.125000000000       4.550000000000
        57    1        7.505553499465      -9.750000000000       0.000000000000
        58    1        6.567359312032     -11.375000000000       2.600000000000
        59    2        7.505553499465      -9.750000000000       1.950000000000
        60    2        6.567359312032     -11.375000000000       4.550000000000
        61    1       10.320136061765       4.875000000000       0.000000000000
        62    1        9.381941874331       3.250000000000       2.600000000000
        63    2       10.320136061765       4.875000000000       1.950000000000
        64    2        9.381941874331       3.250000000000       4.550000000000
        65    1       10.320136061765       1.625000000000       0.000000000000
        66    1        9.381941874331      -0.000000000000       2.600000000000
        67    2       10.320136061765       1.625000000000       1.950000000000
        68    2        9.381941874331      -0.000000000000       4.550000000000
        69    1       10.320136061765      -1.625000000000       0.000000000000
        70    1        9.381941874331      -3.250000000000       2.600000000000
        71    2       10.320136061765      -1.625000000000       1.950000000000
        72    2        9.381941874331      -3.250000000000       4.550000000000
        73    1       10.320136061765      -4.875000000000       0.000000000000
        74    1        9.381941874331      -6.500000000000       2.600000000000
        75    2       10.320136061765      -4.875000000000       1.950000000000
        76    2        9.381941874331      -6.500000000000       4.550000000000
        77    1       10.320136061765      -8.125000000000       0.000000000000
        78    1        9.381941874331      -9.750000000000       2.600000000000
        79    2       10.320136061765      -8.125000000000       1.950000000000
        80    2        9.381941874331      -9.750000000000       4.550000000000
        81    1       13.134718624064       6.500000000000       0.000000000000
        82    1       12.196524436631       4.875000000000       2.600000000000
        83    2       13.134718624064       6.500000000000       1.950000000000
        84    2       12.196524436631       4.875000000000       4.550000000000
        85    1       13.134718624064       3.250000000000       0.000000000000
        86    1       12.196524436631       1.625000000000       2.600000000000
        87    2       13.134718624064       3.250000000000       1.950000000000
        88    2       12.196524436631       1.625000000000       4.550000000000
        89    1       13.134718624064      -0.000000000000       0.000000000000
        90    1       12.196524436631      -1.625000000000       2.600000000000
        91    2       13.134718624064      -0.000000000000       1.950000000000
        92    2       12.196524436631      -1.625000000000       4.550000000000
        93    1       13.134718624064      -3.250000000000       0.000000000000
        94    1       12.196524436631      -4.875000000000       2.600000000000
        95    2       13.134718624064      -3.250000000000       1.950000000000
        96    2       12.196524436631      -4.875000000000       4.550000000000
        97    1       13.134718624064      -6.500000000000       0.000000000000
        98    1       12.196524436631      -8.125000000000       2.600000000000
        99    2       13.134718624064      -6.500000000000       1.950000000000
       100    2       12.196524436631      -8.125000000000       4.550000000000
       101    1        1.876388374866      -0.000000000000       5.200000000000
       102    1        0.938194187433      -1.625000000000       7.800000000000
       103    2        1.876388374866      -0.000000000000       7.150000000000
       104    2        0.938194187433      -1.625000000000       9.750000000000
       105    1        1.876388374866      -3.250000000000       5.200000000000
       106    1        0.938194187433      -4.875000000000       7.800000000000
       107    2        1.876388374866      -3.250000000000       7.150000000000
       108    2        0.938194187433      -4.875000000000       9.750000000000
       109    1        1.876388374866      -6.500000000000       5.200000000000
       110    1        0.938194187433      -8.125000000000       7.800000000000
       111    2        1.876388374866      -6.500000000000       7.150000000000
       112    2        0.938194187433      -8.125000000000       9.750000000000
       113    1        1.876388374866      -9.750000000000       5.200000000000
       114    1        0.938194187433     -11.375000000000       7.800000000000
       115    2        1.876388374866      -9.750000000000       7.150000000000
       116    2        0.938194187433     -11.375000000000       9.750000000000
       117    1        1.876388374866     -13.000000000000       5.200000000000
       118    1        0.938194187433     -14.625000000000       7.800000000000
       119    2        1.876388374866     -13.000000000000       7.150000000000
       120    2        0.938194187433     -14.625000000000       9.750000000000
       121    1        4.690970937166       1.625000000000       5.200000000000
       122    1        3.752776749733      -0.000000000000       7.800000000000
       123    2        4.690970937166       1.625000000000       7.150000000000
       124    2        3.752776749733      -0.000000000000       9.750000000000
       125    1        4.690970937166      -1.625000000000       5.200000000000
       126    1        3.752776749733      -3.250000000000       7.800000000000
       127    2        4.690970937166      -1.625000000000       7.150000000000
       128    2        3.752776749733      -3.250000000000       9.750000000000
       129    1        4.690970937166      -4.875000000000       5.200000000000
       130    1        3.752776749733      -6.500000000000       7.800000000000
       131    2        4.690970937166      -4.875000000000       7.150000000000
       132    2        3.752776749733      -6.500000000000       9.750000000000
       133    1        4.690970937166      -8.125000000000       5.200000000000
       134    1        3.752776749733      -9.750000000000       7.800000000000
       135    2        4.690970937166      -8.125000000000       7.150000000000
       136    2        3.752776749733      -9.750000000000       9.750000000000
       137    1        4.690970937166     -11.375000000000       5.200000000000
       138    1        3.752776749733     -13.000000000000       7.800000000000
       139    2        4.690970937166     -11.375000000000       7.150000000000
       140    2        3.752776749733     -13.000000000000       9.750000000000
       141    1        7.505553499465       3.250000000000       5.200000000000
       142    1        6.567359312032       1.625000000000       7.800000000000
       143    2        7.505553499465       3.250000000000       7.150000000000
       144    2        6.567359312032       1.625000000000       9.750000000000
       145    1        7.505553499465      -0.000000000000       5.200000000000
       146    1        6.567359312032      -1.625000000000       7.800000000000
       147    2        7.505553499465      -0.000000000000       7.150000000000
       148    2        6.567359312032      -1.625000000000       9.750000000000
       149    1        7.505553499465      -3.250000000000       5.200000000000
       150    1        6.567359312032      -4.875000000000       7.800000000000
       151    2        7.505553499465      -3.250000000000       7.150000000000
       152    2        6.567359312032      -4.875000000000       9.750000000000
       153    1        7.505553499465      -6.500000000000       5.200000000000
       154    1        6.567359312032      -8.125000000000       7.800000000000
       155    2        7.505553499465      -6.500000000000       7.150000000000
       156    2        6.567359312032      -8.125000000000       9.750000000000
       157    1        7.505553499465      -9.750000000000       5.200000000000
       158    1        6.567359312032     -11.375000000000       7.800000000000
       159    2        7.505553499465      -9.750000000000       7.150000000000
       160    2        6.567359312032     -11.375000000000       9.750000000000
       161    1       10.320136061765       4.875000000000       5.200000000000
       162    1        9.381941874331       3.250000000000       7.800000000000
       163    2       10.320136061765       4.875000000000       7.150000000000
       164    2        9.381941874331       3.250000000000       9.750000000000
       165    1       10.320136061765       1.625000000000       5.200000000000
       166    1        9.381941874331      -0.000000000000       7.800000000000
       167    2       10.320136061765       1.625000000000       7.150000000000
       168    2        9.381941874331      -0.000000000000       9.750000000000
       169    1       10.320136061765      -1.625000000000       5.200000000000
       170    1        9.381941874331      -3.250000000000       7.800000000000
       171    2       10.320136061765      -1.625000000000       7.150000000000
       172    2        9.381941874331      -3.250000000000       9.750000000000
       173    1       10.320136061765      -4.875000000000       5.200000000000
       174    1        9.381941874331      -6.500000000000       7.800000000000
       175    2       10.320136061765      -4.875000000000       7.150000000000
       176    2        9.381941874331      -6.500000000000       9.750000000000
       177    1       10.320136061765      -8.125000000000       5.200000000000
       178    1        9.381941874331      -9.750000000000       7.800000000000
       179    2       10.320136061765      -8.125000000000       7.150000000000
       180    2        9.381941874331      -9.750000000000       9.750000000000
       181    1       13.134718624064       6.500000000000       5.200000000000
       182    1       12.196524436631       4.875000000000       7.800000000000
       183    2       13.134718624064       6.500000000000       7.150000000000
       184    2       12.196524436631       4.875000000000       9.750000000000
       185    1       13.134718624064       3.250000000000       5.200000000000
       186    1       12.196524436631       1.625000000000       7.800000000000
       187    2       13.134718624064       3.250000000000       7.150000000000
       188    2       12.196524436631       1.625000000000       9.750000000000
       189    1       13.134718624064      -0.000000000000       5.200000000000
       190    1       12.196524436631      -1.625000000000       7.800000000000
       191    2       13.134718624064      -0.000000000000       7.150000000000
       192    2       12.196524436631      -1.625000000000       9.750000000000
       193    1       13.134718624064      -3.250000000000       5.200000000000
       194    1       12.196524436631      -4.875000000000       7.800000000000
       195    2       13.134718624064      -3.250000000000       7.150000000000
       196    2       12.196524436631      -4.875000000000       9.750000000000
       197    1       13.134718624064      -6.500000000000       5.200000000000
       198    1       12.196524436631      -8.125000000000       7.800000000000
       199    2       13.134718624064      -6.500000000000       7.150000000000
       200    2       12.196524436631      -8.125000000000       9.750000000000
       201    1        1.876388374866      -0.000000000000      10.400000000000
       202    1        0.938194187433      -1.625000000000      13.000000000000
       203    2        1.876388374866      -0.000000000000      12.350000000000
       204    2        0.938194187433      -1.625000000000      14.950000000000
       205    1        1.876388374866      -3.250000000000      10.400000000000
       206    1        0.938194187433      -4.875000000000      13.000000000000
       207    2        1.876388374866      -3.250000000000      12.350000000000
       208    2        0.938194187433      -4.875000000000      14.950000000000
       209    1        1.876388374866      -6.500000000000      10.400000000000
       210    1        0.938194187433      -8.125000000000      13.000000000000
       211    2        1.876388374866      -6.500000000000      12.350000000000
       212    2        0.938194187433      -8.125000000000      14.950000000000
       213    1        1.876388374866      -9.750000000000      10.400000000000
       214    1        0.938194187433     -11.375000000000      13.000000000000
       215    2        1.876388374866      -9.750000000000      12.350000000000
       216    2        0.938194187433     -11.375000000000      14.950000000000
       217    1        1.876388374866     -13.000000000000      10.400000000000
       218    1        0.938194187433     -14.625000000000      13.000000000000
       219    2        1.876388374866     -13.000000000000      12.350000000000
       220    2        0.938194187433     -14.625000000000      14.950000000000
       221    1        4.690970937166       1.625000000000      10.400000000000
       222    1        3.752776749733      -0.000000000000      13.000000000000
       223    2        4.690970937166       1.625000000000      12.350000000000
       224    2        3.752776749733      -0.000000000000      14.950000000000
       225    1        4.690970937166      -1.625000000000      10.400000000000
       226    1        3.752776749733      -3.250000000000      13.000000000000
       227    2        4.690970937166      -1.625000000000      12.350000000000
       228    2        3.752776749733      -3.250000000000      14.950000000000
       229    1        4.690970937166      -4.875000000000      10.400000000000
       230    1        3.752776749733      -6.500000000000      13.000000000000
       231    2        4.690970937166      -4.875000000000      12.350000000000
       232    2        3.752776749733      -6.500000000000      14.950000000000
       233    1        4.690970937166      -8.125000000000      10.400000000000
       234    1        3.752776749733      -9.750000000000      13.000000000000
       235    2        4.690970937166      -8.125000000000      12.350000000000
       236    2        3.752776749733      -9.750000000000      14.950000000000
       237    1        4.690970937166     -11.375000000000      10.400000000000
       238    1        3.752776749733     -13.000000000000      13.000000000000
       239    2        4.690970937166     -11.375000000000      12.350000000000
       240    2        3.752776749733     -13.000000000000      14.950000000000
       241    1        7.505553499465       3.250000000000      10.400000000000
       242    1        6.567359312032       1.625000000000      13.000000000000
       243    2        7.505553499465       3.250000000000      12.350000000000
       244    2        6.567359312032       1.625000000000      14.950000000000
       245    1        7.505553499465      -0.000000000000      10.400000000000
       246    1        6.567359312032      -1.625000000000      13.000000000000
       247    2        7.505553499465      -0.000000000000      12.350000000000
       248    2        6.567359312032      -1.625000000000      14.950000000000
       249    1        7.505553499465      -3.250000000000      10.400000000000
       250    1        6.567359312032      -4.875000000000      13.000000000000
       251    2        7.505553499465      -3.250000000000      12.350000000000
       252    2        6.567359312032      -4.875000000000      14.950000000000
       253    1        7.505553499465      -6.500000000000      10.400000000000
       254    1        6.567359312032      -8.125000000000      13.000000000000
       255    2        7.505553499465      -6.500000000000      12.350000000000
       256    2        6.567359312032      -8.125000000000      14.950000000000
       257    1        7.505553499465      -9.750000000000      10.400000000000
       258    1        6.567359312032     -11.375000000000      13.000000000000
       259    2        7.505553499465      -9.750000000000      12.350000000000
       260    2        6.567359312032     -11.375000000000      14.950000000000
       261    1       10.320136061765       4.875000000000      10.400000000000
       262    1        9.381941874331       3.250000000000      13.000000000000
       263    2       10.320136061765       4.875000000000      12.350000000000
       264    2        9.381941874331       3.250000000000      14.950000000000
       265    1       10.320136061765       1.625000000000      10.400000000000
       266    1        9.381941874331      -0.000000000000      13.000000000000
       267    2       10.320136061765       1.625000000000      12.350000000000
       268    2        9.381941874331      -0.000000000000      14.950000000000
       269    1       10.320136061765      -1.625000000000      10.400000000000
       270    1        9.381941874331      -3.250000000000      13.000000000000
       271    2       10.320136061765      -1.625000000000      12.350000000000
       272    2        9.381941874331      -3.250000000000      14.950000000000
       273    1       10.320136061765      -4.875000000000      10.400000000000
       274    1        9.381941874331      -6.500000000000      13.000000000000
       275    2       10.320136061765      -4.875000000000      12.350000000000
       276    2        9.381941874331      -6.500000000000      14.950000000000
       277    1       10.320136061765      -8.125000000000      10.400000000000
       278    1        9.381941874331      -9.750000000000      13.000000000000
       279    2       10.320136061765      -8.125000000000      12.350000000000
       280    2        9.381941874331      -9.750000000000      14.950000000000
       281    1       13.134718624064       6.500000000000      10.400000000000
       282    1       12.196524436631       4.875000000000      13.000000000000
       283    2       13.134718624064       6.500000000000      12.350000000000
       284    2       12.196524436631       4.875000000000      14.950000000000
       285    1       13.134718624064       3.250000000000      10.400000000000
       286    1       12.196524436631       1.625000000000      13.000000000000
       287    2       13.134718624064       3.250000000000      12.350000000000
       288    2       12.196524436631       1.625000000000      14.950000000000
       289    1       13.134718624064      -0.000000000000      10.400000000000
       290    1       12.196524436631      -1.625000000000      13.000000000000
       291    2       13.134718624064      -0.000000000000      12.350000000000
       292    2       12.196524436631      -1.625000000000      14.950000000000
       293    1       13.134718624064      -3.250000000000      10.400000000000
       294    1       12.196524436631      -4.875000000000      13.000000000000
       295    2       13.134718624064      -3.250000000000      12.350000000000
       296    2       12.196524436631      -4.875000000000      14.950000000000
       297    1       13.134718624064      -6.500000000000      10.400000000000
       298    1       12.196524436631      -8.125000000000      13.000000000000
       299    2       13.134718624064      -6.500000000000      12.350000000000
       300    2       12.196524436631      -8.125000000000      14.950000000000
       301    1        1.876388374866      -0.000000000000      15.600000000000
       302    1        0.938194187433      -1.625000000000      18.200000000000
       303    2        1.876388374866      -0.000000000000      17.550000000000
       304    2        0.938194187433      -1.625000000000      20.150000000000
       305    1        1.876388374866      -3.250000000000      15.600000000000
       306    1        0.938194187433      -4.875000000000      18.200000000000
       307    2        1.876388374866      -3.250000000000      17.550000000000
       308    2        0.938194187433      -4.875000000000      20.150000000000
       309    1        1.876388374866      -6.500000000000      15.600000000000
       310    1        0.938194187433      -8.125000000000      18.200000000000
       311    2        1.876388374866      -6.500000000000      17.550000000000
       312    2        0.938194187433      -8.125000000000      20.150000000000
       313    1        1.876388374866      -9.750000000000      15.600000000000
       314    1        0.938194187433     -11.375000000000      18.200000000000
       315    2        1.876388374866      -9.750000000000      17.550000000000
       316    2        0.938194187433     -11.375000000000      20.150000000000
       317    1        1.876388374866     -13.000000000000      15.600000000000
       318    1        0.938194187433     -14.625000000000      18.200000000000
       319    2        1.876388374866     -13.000000000000      17.550000000000
       320    2        0.938194187433     -14.625000000000      20.150000000000
       321    1        4.690970937166       1.625000000000      15.600000000000
       322    1        3.752776749733      -0.000000000000      18.200000000000
       323    2        4.690970937166       1.625000000000      17.550000000000
       324    2        3.752776749733      -0.000000000000      20.150000000000
       325    1        4.690970937166      -1.625000000000      15.600000000000
       326    1        3.752776749733      -3.250000000000      18.200000000000
       327    2        4.690970937166      -1.625000000000      17.550000000000
       328    2        3.752776749733      -3.250000000000      20.150000000000
       329    1        4.690970937166      -4.875000000000      15.600000000000
       330    1        3.752776749733      -6.500000000000      18.200000000000
       331    2        4.690970937166      -4.875000000000      17.550000000000
       332    2        3.752776749733      -6.500000000000      20.150000000000
       333    1        4.690970937166      -8.125000000000      15.600000000000
       334    1        3.752776749733      -9.750000000000      18.200000000000
       335    2        4.690970937166      -8.125000000000      17.550000000000
       336    2        3.752776749733      -9.750000000000      20.150000000000
       337    1        4.690970937166     -11.375000000000      15.600000000000
       338    1        3.752776749733     -13.000000000000      18.200000000000
       339    2        4.690970937166     -11.375000000000      17.550000000000
       340    2        3.752776749733     -13.000000000000      20.150000000000
       341    1        7.505553499465       3.250000000000      15.600000000000
       342    1        6.567359312032       1.625000000000      18.200000000000
       343    2        7.505553499465       3.250000000000      17.550000000000
       344    2        6.567359312032       1.625000000000      20.150000000000
       345    1        7.505553499465      -0.000000000000      15.600000000000
       346    1        6.567359312032      -1.625000000000      18.200000000000
       347    2        7.505553499465      -0.000000000000      17.550000000000
       348    2        6.567359312032      -1.625000000000      20.150000000000
       349    1        7.505553499465      -3.250000000000      15.600000000000
       350    1        6.567359312032      -4.875000000000      18.200000000000
       351    2        7.505553499465      -3.250000000000      17.550000000000
       352    2        6.567359312032      -4.875000000000      20.150000000000
       353    1        7.505553499465      -6.500000000000      15.600000000000
       354    1        6.567359312032      -8.125000000000      18.200000000000
       355    2        7.505553499465      -6.500000000000      17.550000000000
       356    2        6.567359312032      -8.125000000000      20.150000000000
       357    1        7.505553499465      -9.750000000000      15.600000000000
       358    1        6.567359312032     -11.375000000000      18.200000000000
       359    2        7.505553499465      -9.750000000000      17.550000000000
       360    2        6.567359312032     -11.375000000000      20.150000000000
       361    1       10.320136061765       4.875000000000      15.600000000000
       362    1        9.381941874331       3.250000000000      18.200000000000
       363    2       10.320136061765       4.875000000000      17.550000000000
       364    2        9.381941874331       3.250000000000      20.150000000000
       365    1       10.320136061765       1.625000000000      15.600000000000
       366    1        9.381941874331      -0.000000000000      18.200000000000
       367    2       10.320136061765       1.625000000000      17.550000000000
       368    2        9.381941874331      -0.000000000000      20.150000000000
       369    1       10.320136061765      -1.625000000000      15.600000000000